<?xml version="1.0" encoding="UTF-8"?>

<!-- generated on 11/10/20 21:54:09 by Eclipse SUMO sumo Version 1.7.0
<configuration xmlns:xsi="http://www.w3.org/2001/XMLSchema-instance" xsi:noNamespaceSchemaLocation="http://sumo.dlr.de/xsd/sumoConfiguration.xsd">

    <input>
        <net-file value="D:\github\sumo-learning\2020-11-10-21-53-33\osm.net.xml"/>
        <route-files value="D:\github\sumo-learning\2020-11-10-21-53-33\trips.trips.xml"/>
        <additional-files value="D:\github\sumo-learning\2020-11-10-21-53-33\osm_stops.add.xml"/>
    </input>

    <output>
        <vehroute-output value="D:\github\sumo-learning\2020-11-10-21-53-33\vehroutes.xml"/>
        <stop-output value="D:\github\sumo-learning\2020-11-10-21-53-33\stopinfos.xml"/>
    </output>

    <time>
        <begin value="0"/>
    </time>

    <processing>
        <ignore-route-errors value="true"/>
    </processing>

    <routing>
        <device.rerouting.adaptation-interval value="0"/>
    </routing>

    <report>
        <error-log value="D:\github\sumo-learning\2020-11-10-21-53-33\trips.trips.xml.errorlog"/>
        <no-step-log value="true"/>
    </report>

</configuration>
-->

<routes xmlns:xsi="http://www.w3.org/2001/XMLSchema-instance" xsi:noNamespaceSchemaLocation="http://sumo.dlr.de/xsd/routes_file.xsd">
    <vehicle id="4_bus_跳蛙公車:0" type="pt_bus" depart="15.00" departLane="0" arrival="121.00">
        <route edges="326352589#0 326352589#1 244421759#0"/>
        <stop busStop="2517390810" duration="30.00"/>
    </vehicle>

    <vehicle id="31_bus_260區:0" type="pt_bus" depart="72.00" departLane="0" arrival="172.00">
        <route edges="241536941 822577908#0 822577908#1 515730128"/>
        <stop busStop="2459652486" duration="30.00"/>
    </vehicle>

    <vehicle id="32_bus_260區:1" type="pt_bus" depart="78.00" departLane="0" arrival="209.00">
        <route edges="241536941 822577908#0 822577908#1 515730128"/>
        <stop busStop="2459652486" duration="30.00"/>
    </vehicle>

    <vehicle id="36_subway_A:0" type="pt_subway" depart="93.00" departLane="0" arrival="226.00">
        <route edges="170432840"/>
        <stop busStop="4653351590" duration="30.00"/>
    </vehicle>

    <vehicle id="38_bus_62:0" type="pt_bus" depart="98.00" departLane="0" arrival="238.00">
        <route edges="312929528#0 312929528#1 312929528#2 -312929520"/>
        <stop busStop="3188323199" duration="30.00"/>
        <stop busStop="2826082744" duration="30.00"/>
    </vehicle>

    <vehicle id="91_bus_52:1" type="pt_bus" depart="203.00" departLane="0" arrival="253.00">
        <route edges="-244450426#1"/>
        <stop busStop="-2631129011" duration="30.00"/>
    </vehicle>

    <vehicle id="6_bus_NH10:1" type="pt_bus" depart="17.00" departLane="0" arrival="264.00">
        <route edges="449379853#0 449379853#2 449379853#3 449379853#4 244421761#0 244421761#1 244421761#2 244421761#3 244421761#4 -326352589#1 -326352589#0"/>
        <stop busStop="2517390808" duration="30.00"/>
        <stop busStop="-2517390809" duration="30.00"/>
    </vehicle>

    <vehicle id="5_bus_NH10:0" type="pt_bus" depart="21.00" departLane="0" arrival="280.00">
        <route edges="326352589#0 326352589#1 -244421761#4 -244421761#3 -244421761#2 -244421761#1 -244421761#0 -449379868 449379870#0 449379870#1"/>
    </vehicle>

    <vehicle id="98_bus_62:1" type="pt_bus" depart="227.00" departLane="0" arrival="335.00">
        <route edges="312929520 198316869#1 198316869#2 198316869#3 198316869#4 198316869#5 198316869#6 198316869#7 297312478#0 297312478#1 297312478#2"/>
        <stop busStop="3188323200" duration="30.00"/>
    </vehicle>

    <vehicle id="87_bus_660:1" type="pt_bus" depart="188.00" departLane="0" arrival="336.00">
        <route edges="199239734#0 199239734#1 199239734#2 40606341#1 441378955#0 441378955#1 441378955#2 441378955#3 441378955#4 -287316014#2 -287316014#1 -244450426#2 -244450426#1"/>
        <stop busStop="2631129010" duration="30.00"/>
        <stop busStop="-2631129011" duration="30.00"/>
    </vehicle>

    <vehicle id="40_bus_204:0" type="pt_bus" depart="102.00" departLane="0" arrival="356.00">
        <route edges="313675767#0 313675767#5 189615573#1 189615573#2 189615573#4 506389476#1 506389476#2 310849376#0 310849376#1 454931327#1 454931327#2 506389484#1"/>
        <stop busStop="3156267990" duration="30.00"/>
        <stop busStop="3186022961" duration="30.00"/>
    </vehicle>

    <vehicle id="150_bus_645:3" type="pt_bus" depart="350.00" departLane="0" arrival="388.00">
        <route edges="28555484#4"/>
        <stop busStop="2517390817" duration="30.00"/>
    </vehicle>

    <vehicle id="55_bus_204:1" type="pt_bus" depart="132.00" departLane="0" arrival="414.00">
        <route edges="454329104#0 454329104#3 454329104#4 265738682#3 265738682#4 310849377#1 310849377#2 506389480#1 506389480#3 506389480#4 232361466#1 232361466#2"/>
        <stop busStop="3079655520" duration="30.00"/>
        <stop busStop="2517658798" duration="30.00"/>
        <stop busStop="3156267991" duration="30.00"/>
    </vehicle>

    <vehicle id="86_bus_660:0" type="pt_bus" depart="187.00" departLane="0" arrival="438.00">
        <route edges="244450426#0 244450426#1 244450426#2 287316010#1 287316010#3 287316010#4 -199980015#8 -199980015#7 -199980015#5 -199980015#3 -199980015#1 -199980015#0 -51911170#11 -51911170#10 -51911170#9 -51911170#8 -51911170#7 -51911170#6 -51911170#5 -51911170#4"/>
        <stop busStop="3188090050" duration="30.00"/>
        <stop busStop="-3188090055" duration="30.00"/>
        <stop busStop="-2706621452" duration="30.00"/>
    </vehicle>

    <vehicle id="155_bus_950:0" type="pt_bus" depart="362.00" departLane="0" arrival="453.00">
        <route edges="326352589#1"/>
        <stop busStop="2517390810" duration="30.00"/>
    </vehicle>

    <vehicle id="93_bus_5201:1" type="pt_bus" depart="204.00" departLane="0" arrival="547.00">
        <route edges="49164248 49164289 50893500 50893499#1 49164274 857513614-AddedOnRampEdge 857513614 857513613 49074706 49074696 302246990#0 302246990#1 407513567#1 260789415#0 260789415#3 260789415#4 260789415#5 260789415#6 260789415#7 260789415#8 260789415#9 263056100#1 263056100#2 263056100#3 593840517#1 593840517#2 593840517#3"/>
        <stop busStop="3064960375" duration="30.00"/>
    </vehicle>

    <vehicle id="154_bus_262區:1" type="pt_bus" depart="396.00" departLane="0" arrival="555.00">
        <route edges="51272316#2 51272316#3 51272316#4 51272316#5 51272316#6 51272316#7 317406911#2 317406911#3 317406911#4 317406911#5 317406911#6"/>
        <stop busStop="3161349914" duration="30.00"/>
        <stop busStop="3161349908" duration="30.00"/>
    </vehicle>

    <vehicle id="204_bus_262:1" type="pt_bus" depart="505.00" departLane="0" arrival="599.00">
        <route edges="51272316#2 51272316#3 51272316#4 51272316#5 51272316#6 51272316#7 317406911#2 317406911#3 317406911#4 317406911#5 317406911#6"/>
        <stop busStop="3161349914" duration="30.00"/>
        <stop busStop="3161349908" duration="30.00"/>
    </vehicle>

    <vehicle id="10_bus_520:1" type="pt_bus" depart="33.00" departLane="0" arrival="612.00">
        <route edges="240133507#0 240133507#1 51392762 311689672 311799869#0 311799869#1 311799869#3 311799869#4 311799869#5 311689670 686241184#0 686241184#1 312929521#0 312929521#1 299291335#1 299291335#2 299291335#3 299291335#4 265725164#0 265725164#1 265725164#2 299403731#0 506596676#1 506596676#2 506596676#3 450750323 306543362 49788435 506596684#0 506596684#1 506596684#2 506596684#3 506596684#4 506596684#5"/>
        <stop busStop="2713414697" duration="30.00"/>
        <stop busStop="2713414521" duration="30.00"/>
        <stop busStop="2703510764" duration="30.00"/>
    </vehicle>

    <vehicle id="33_bus_260:0" type="pt_bus" depart="79.00" departLane="0" arrival="625.00">
        <route edges="310620428#0 310620428#1 310620428#2 310620428#3 310620428#4 310620428#5 310620428#6 515156277#0 515156277#1 515156277#2 515156277#3 515156266#0 515156266#1 515156266#2 515156266#3 515156266#4 506596685 265735749#0 265735749#1 265735749#2 319208670#0 319208670#1 515156255#0 515156255#1 515156255#2 515156251#0 515156251#1 515156251#2 515156251#3 515156251#4 241811753 265735269#0 265735269#1 265735269#2 49795872#1 49795872#2 50289965#0 50289965#1 266052141 241811754 241536938 241536941 822577908#0 822577908#1 515730128"/>
        <stop busStop="2702173288" duration="30.00"/>
        <stop busStop="2509549130" duration="30.00"/>
        <stop busStop="2459652486" duration="30.00"/>
    </vehicle>

    <vehicle id="248_bus_246:0" type="pt_bus" depart="599.00" departLane="0" arrival="640.00">
        <route edges="-308286090#11"/>
        <stop busStop="-2509549126" duration="30.00"/>
    </vehicle>

    <vehicle id="44_bus_0東:0" type="pt_bus" depart="114.00" departLane="0" arrival="653.00">
        <route edges="52907067 51272312#1 317406911#2 317406911#3 317406911#4 317406911#5 317406911#6 317406911#7 317406911#8 51354478#7 51354478#8 557564466#0 557564466#1 51272319#9 51272319#10 51272319#11 51272319#13 51272319#14 265736899#0 265736899#1 265736899#2 772891690 772891695#0 772891695#1 772891695#2 51272317#0 51272317#1 51272317#3 51272317#4 51272317#7 51272317#8 51272317#11 51272317#14 51272317#15 51272317#17 51272317#19 232361462#2 232361462#3 232361462#4 310849377#1 310849377#2 506389480#1 506389480#3 506389480#4 232361466#1 232361466#2"/>
        <stop busStop="3161349908" duration="30.00"/>
    </vehicle>

    <vehicle id="89_bus_278:1" type="pt_bus" depart="194.00" departLane="0" arrival="656.00">
        <route edges="52907067 51272312#1 317406911#2 317406911#3 317406911#4 317406911#5 317406911#6 317406911#7 317406911#8 51354478#7 51354478#8 557564466#0 557564466#1 51272319#9 51272319#10 51272319#11 51272319#13 51272319#14 265736899#0 265736899#1 265736899#2 772891690 772891695#0 772891695#1 772891695#2 51272317#0 51272317#1 51272317#3 51272317#4 51272317#7 51272317#8 51272317#11 51272317#14 51272317#15 51272317#17 51272317#19 232361462#2 232361462#3 232361462#4 310849377#1 310849377#2 506389480#1 506389480#3 506389480#4 232361466#1 232361466#2"/>
        <stop busStop="3161349908" duration="30.00"/>
    </vehicle>

    <vehicle id="9_bus_520:0" type="pt_bus" depart="28.00" departLane="0" arrival="685.00">
        <route edges="759988498#0 759988498#1 759988498#2 308987019#1 308987019#2 308987019#3 308987019#4 308987019#5 308987019#8 308987019#10 308987019#11 308987019#12 308987019#13 308987019#14 506597801#1 506597801#3 506597801#4 506597801#5 265735748 50893546 278492471 278492470#0 278492470#1 278492470#2 506596678#1 506596678#2 299403732#0 299403732#1 265725163#0 265725163#1 265725163#2 265725163#3 300090401 50893549#1 772891702 50893541#0 50893541#1"/>
        <stop busStop="2509549194" duration="30.00"/>
        <stop busStop="2509549136" duration="30.00"/>
        <stop busStop="2703510765" duration="30.00"/>
        <stop busStop="4838086676" duration="30.00"/>
        <stop busStop="2713414522" duration="30.00"/>
        <stop busStop="2713414698" duration="30.00"/>
    </vehicle>

    <vehicle id="62_bus_260:1" type="pt_bus" depart="138.00" departLane="0" arrival="685.00">
        <route edges="254326518#0 254326518#1 254326517#0 254326517#1 254326517#2 822577915 822577904 241536929#0 241536929#1 266052139 50289964 49795832#1 49795832#2 49795876#0 49795876#1 241536920 515156236#0 515156236#1 515156236#2 515156250#0 515156250#1 515156250#2 515156250#3 515156259#0 515156259#1 319208672#0 319208672#1 450750325 278492469#0 278492469#1 278492469#2 278492469#3 278492469#4 515156264#0 515156264#1 515156264#2 515156264#3 515156283 515156275#0 515156275#1 515156275#2 515156275#3 515156275#4 515156275#5 515156275#6 515156275#7 515156275#8"/>
        <stop busStop="2509549129" duration="30.00"/>
    </vehicle>

    <vehicle id="228_subway_A:1" type="pt_subway" depart="560.00" departLane="0" arrival="693.00">
        <route edges="198163706"/>
        <stop busStop="4653351591" duration="30.00"/>
    </vehicle>

    <vehicle id="157_bus_9023:1" type="pt_bus" depart="365.00" departLane="0" arrival="695.00">
        <route edges="50893520#6 50893520#8 50893520#9 299804823#0 299804823#1 299804823#2 299804822#1 299804822#2 299804822#3 -264309964#3 -264309964#2 -264309964#0 -291356419 -24836065#8 -24836065#5 -24836065#4 -24836065#2 -24836065#1 -24836065#0 -291356420 -312929531#6 -312929531#5 -312929531#3 -312929531#2"/>
        <stop busStop="2517658893" duration="30.00"/>
        <stop busStop="2517658841" duration="30.00"/>
    </vehicle>

    <vehicle id="241_subway_A:2" type="pt_subway" depart="590.00" departLane="0" arrival="714.00">
        <route edges="198163706"/>
        <stop busStop="4653351591" duration="30.00"/>
    </vehicle>

    <vehicle id="242_subway_A:3" type="pt_subway" depart="591.00" departLane="0" arrival="724.00">
        <route edges="170432840"/>
        <stop busStop="4653351590" duration="30.00"/>
    </vehicle>

    <vehicle id="169_bus_676:1" type="pt_bus" depart="389.00" departLane="0" arrival="725.00">
        <route edges="263056100#1 263056100#2 263056100#3 593840517#1 593840517#2 593840517#3 265736009#1 265736009#2 265736009#3 265736009#4 265736009#5 265736009#6 265736009#7 265736009#8 265736009#9 312888362#0 312888362#1 312888362#2 312888362#3 312888362#5 312888362#6 312888362#7 312888362#8 268564482#1 268564482#2 268564482#3"/>
        <stop busStop="2506289799" duration="30.00"/>
        <stop busStop="2063258483" duration="30.00"/>
        <stop busStop="2063258394" duration="30.00"/>
    </vehicle>

    <vehicle id="139_bus_298:1" type="pt_bus" depart="329.00" departLane="0" arrival="762.00">
        <route edges="668037871#0 668037871#2 668037871#3 668037871#4 238707587#1 238707587#2 238707587#3 238707587#4 238707587#5 238707587#6 310620430#1 310620430#2 310620430#3 310620430#4 310620430#6 310620430#7 316964694#0 316964694#1 316964694#2 316964694#3 316964694#7 316964694#8 316964694#9 316964694#10 437870657#1 437870657#2 437870657#3 437870657#4 49710758#2 49710758#3"/>
        <stop busStop="3419306362" duration="30.00"/>
        <stop busStop="3419306361" duration="30.00"/>
        <stop busStop="3057057096" duration="30.00"/>
        <stop busStop="3047363031" duration="30.00"/>
    </vehicle>

    <vehicle id="104_bus_9025:2" type="pt_bus" depart="241.00" departLane="0" arrival="780.00">
        <route edges="450750322#0 450750322#1 450750322#2 48740804#0 48740804#1 35928057#1 35928057#2 260789418#1 260789418#2 260789418#3 260789418#4 260789418#5 260789418#6 260789418#7 506599425#0 506599425#1 506599424#1 506599424#2 506599424#3 506599424#4 506599424#5 198589912#0 198589912#1 198589912#2 198589912#3 198589912#5 198589912#6 198589912#7 506599421#0 506599421#1 506599421#2 506599421#3 317347668 334816784#0 334816784#1 334816784#2 334816784#3 334816784#4 334816784#5 506597810#0 506597810#1 506597810#2 506597810#3 238707595#1 238707595#2 238707595#3 238707595#4 238707595#5 238707595#6 238707595#9 49134108#0 49134108#1 49134108#2 49134108#3 291325258 49074701 98717318 291325256 49134095#1 49164264 49164258"/>
        <stop busStop="3495444317" duration="30.00"/>
    </vehicle>

    <vehicle id="57_subway_R:0" type="pt_subway" depart="133.00" departLane="0" arrival="787.00">
        <route edges="265151055 865641460 194618356 194618291 194618339 194618343 194618361"/>
        <stop busStop="3495094874" duration="30.00"/>
        <stop busStop="3495094873" duration="30.00"/>
        <stop busStop="3495094872" duration="30.00"/>
        <stop busStop="3495094871" duration="30.00"/>
    </vehicle>

    <vehicle id="47_bus_668:0" type="pt_bus" depart="122.00" departLane="0" arrival="829.00">
        <route edges="593841520#0 593841520#2 232003900#1 232003900#2 506359617#1 506359617#2 506359617#3 49710759 506359630#1 506359630#2 506359630#3 506359630#4 506359643#0 506359643#1 317388745#1 317388745#2 317388745#3 317388745#4 317388745#5 506316037#1 506316037#2 506316037#3 506316037#4 506316037#5 506316037#6 506316037#7 374427270 189615566 374427273#0 374427273#1 374427273#2 506359662#1 506359662#2 506359662#3 506359662#4 506359672#0 506359672#1 506359672#2 506359672#3 232361468 189615573#1 189615573#2 189615573#4 506389476#1 506389476#2 310849376#0 310849376#1 454931327#1 454931327#2 506389484#1"/>
        <stop busStop="2447073221" duration="30.00"/>
        <stop busStop="2447073212" duration="30.00"/>
        <stop busStop="2447087409" duration="30.00"/>
        <stop busStop="3156267993" duration="30.00"/>
        <stop busStop="3156267992" duration="30.00"/>
        <stop busStop="3156267990" duration="30.00"/>
        <stop busStop="3186022961" duration="30.00"/>
    </vehicle>

    <vehicle id="116_bus_645:1" type="pt_bus" depart="269.00" departLane="0" arrival="830.00">
        <route edges="599378886#0 338923679#1 338923679#4 241811786#1 241811786#2 243891935#1 241811785#0 28555484#1 28555484#4 28555484#7 28555484#10 28555484#11 449379871 733033728#0 733033728#1 733033728#2 449379868 244421761#0 244421761#1 244421761#2 244421761#3 244421761#4 -326352589#1 -326352589#0"/>
        <stop busStop="2517390817" duration="30.00"/>
    </vehicle>

    <vehicle id="125_subway_O:2" type="pt_subway" depart="300.00" departLane="0" arrival="843.00">
        <route edges="105689021 198281393 198281380"/>
        <stop busStop="3812564398" duration="30.00"/>
        <stop busStop="3495094873@4250354" duration="30.00"/>
        <stop busStop="3812564391" duration="30.00"/>
    </vehicle>

    <vehicle id="151_subway_BR:1" type="pt_subway" depart="352.00" departLane="0" arrival="845.00">
        <route edges="195696225 195696227 195696224 769378428 195696218 195696213 502829430 195696242#1 195696242#2 195696242#3 502829428 50212695#3 195696237 195696232 195696216 195696222"/>
        <stop busStop="1681745146@447449" duration="30.00"/>
        <stop busStop="3497302608@447449" duration="30.00"/>
        <stop busStop="3497302607" duration="30.00"/>
        <stop busStop="3497302606@447449" duration="30.00"/>
    </vehicle>

    <vehicle id="141_bus_278區:1" type="pt_bus" depart="331.00" departLane="0" arrival="846.00">
        <route edges="317406911#2 317406911#3 317406911#4 317406911#5 317406911#6 317406911#7 317406911#8 51354478#7 51354478#8 557564466#0 557564466#1 51272319#9 51272319#10 51272319#11 51272319#13 51272319#14 265736899#0 265736899#1 265736899#2 772891690 772891695#0 772891695#1 772891695#2 51272317#0 51272317#1 51272317#3 51272317#4 51272317#7 51272317#8 51272317#11 51272317#14 51272317#15 51272317#17 51272317#19 232361462#2 232361462#3 232361462#4 310849377#1 310849377#2 506389480#1 506389480#3 506389480#4 232361466#1 232361466#2"/>
        <stop busStop="3161349908" duration="30.00"/>
    </vehicle>

    <vehicle id="68_bus_905:0" type="pt_bus" depart="147.00" departLane="0" arrival="858.00">
        <route edges="317406911#2 317406911#3 317406911#4 317406911#5 317406911#6 317406911#7 317406911#8 244454468#6 244454468#7 244454468#9 244454468#10 311438968#0 311438968#1 311438968#4 313235569#0 313235569#1 313235569#3 313235569#5 313235569#6 313235569#7 313235569#10 313235569#11 264427427#0 264427427#1 260789409 241545650#0 241545650#1 241545650#2 374332365#0 374332365#1 264484756 374332371#1 374332364#0 374332369#0 374332369#1 374332369#2 374332369#3 374332367#0 374332367#1 374427263#0 374427263#1 374427263#2 232359756 374427262#0 374427264#0"/>
        <stop busStop="3161349908" duration="30.00"/>
    </vehicle>

    <vehicle id="30_bus_966:0" type="pt_bus" depart="71.00" departLane="0" arrival="863.00">
        <route edges="49164248 49164289 49164271 273012559#0 273012559#1 273012559#2 273012559#3 273012559#4 273012559#5 273012559#6 450750321#1 450750321#2 450750321#3 291356420 24836065#0 24836065#1 24836065#2 24836065#4 24836065#5 24836065#8 291356419 264309964#0 264309964#2 264309964#3 299804823#0 299804823#1 299804823#2 291356417#2 291356417#3 291356417#4 291356417#5 291356417#6 437870658#1 437870658#4 437870658#5 437870658#6 273012211#1 273012211#2 273012211#3 273012211#4 273012211#5 273012211#6 732390620#0 732390620#1 732390620#2 51392790#1 51392790#2 299403726#1 299403726#2 199973253 289246486#0 289246486#1 289246486#2 289246486#3 289246486#4 289246486#8 5117999#1 5117999#2 5117999#3 5117999#5 5117999#6 5117999#8"/>
        <stop busStop="7662035468" duration="30.00"/>
        <stop busStop="2517658841" duration="30.00"/>
        <stop busStop="2517658824" duration="30.00"/>
        <stop busStop="2517658859" duration="30.00"/>
    </vehicle>

    <vehicle id="137_bus_紅57:1" type="pt_bus" depart="325.00" departLane="0" arrival="872.00">
        <route edges="296214428#0 296214428#5 296214428#6 49134098#2 49134098#3 49134098#4 49134098#5 827859752#1 827859752#2 827859752#3 827859752#6 827859752#7 827859752#8 316964725 248976866#0 248976866#2 248976866#3 248976866#5 265736010#1 265736010#2 265736010#3 265736010#4 593840518#1 593840518#2 593840518#3 198589909#0 198589909#1 198589909#2 198589909#3 198589909#4 198589909#5 -260789406#20 -260789406#19 -260789406#18 -260789406#17 -260789406#16 -260789406#15 -260789406#13 -260789406#12 -260789406#11 -260789406#9 -260789406#8 -260789406#5 -260789406#4 -260789406#3 -260789406#2 -260789406#1 -260789406#0"/>
        <stop busStop="3778518984" duration="30.00"/>
        <stop busStop="2925551451" duration="30.00"/>
        <stop busStop="2063258399" duration="30.00"/>
        <stop busStop="2685395657" duration="30.00"/>
        <stop busStop="-2657578308" duration="30.00"/>
        <stop busStop="-2657578311" duration="30.00"/>
        <stop busStop="-2657578307" duration="30.00"/>
    </vehicle>

    <vehicle id="138_bus_298:0" type="pt_bus" depart="331.00" departLane="0" arrival="877.00">
        <route edges="296214428#0 296214428#5 296214428#6 49134098#2 49134098#3 49134098#4 49134098#5 827859752#1 827859752#2 827859752#3 827859752#6 827859752#7 827859752#8 316964725 248976866#0 248976866#2 248976866#3 248976866#5 265736010#1 265736010#2 265736010#3 265736010#4 593840518#1 593840518#2 593840518#3 238707595#1 238707595#2 238707595#3 238707595#4 238707595#5 238707595#6 238707595#9 312879610#0 312879610#1"/>
        <stop busStop="3778518984" duration="30.00"/>
        <stop busStop="2925551451" duration="30.00"/>
        <stop busStop="1483501762" duration="30.00"/>
        <stop busStop="2506289800" duration="30.00"/>
    </vehicle>

    <vehicle id="46_bus_278:0" type="pt_bus" depart="120.00" departLane="0" arrival="880.00">
        <route edges="313675767#0 313675767#5 244618574 238710697#1 238710697#3 238710697#4 238710697#6 238710697#7 238710697#8 238710697#9 51268670#1 51268670#2 51268670#4 51268670#5 51268670#6 51268670#8 51268670#10 51268670#11 238710694#2 238710694#3 238710694#5 238710694#6 238710694#8 238710694#9 238710694#11 238710694#14 238710694#15 238710694#18 238710694#20 238710694#21 772891693#0 772891693#1 772891693#2 772891692 772891697#0 772891697#1 772891697#2 51272318#0 51272318#1 51272318#2 51272318#4 557553456#0 557553456#1 557553456#2 557553456#5 557553456#6 557553456#8 557553456#9 557553456#10 311964637#0 311964637#1 311964637#2 311964637#4 287735325#0 287735325#1"/>
        <stop busStop="3156267994" duration="30.00"/>
        <stop busStop="3156267988" duration="30.00"/>
        <stop busStop="3156268001" duration="30.00"/>
        <stop busStop="3156267989" duration="30.00"/>
        <stop busStop="2713522973" duration="30.00"/>
        <stop busStop="2713522620" duration="30.00"/>
    </vehicle>

    <vehicle id="54_bus_606:0" type="pt_bus" depart="131.00" departLane="1" arrival="906.00">
        <route edges="254326518#0 254326518#1 50289493 318382834 254326534 -49074697 793191066#0 254326526#0 254326526#1 254326526#2 254326526#3 254326526#4 254326526#5 254326526#6 254326526#7 254326526#8 506597802 759988500#0 759988500#1 759988500#2 759988500#3 759988500#4 759988500#5 759988500#6 759988499 24006860#0 24006860#1 24006860#2 24006860#3 24006860#4 24006860#5 24006860#6 24006860#7 24006860#8 24006860#9 24006860#10 24006860#11 24006860#12 51289046#1 51289046#2 51289046#3"/>
        <stop busStop="2460552126" duration="30.00"/>
        <stop busStop="2460552127" duration="30.00"/>
        <stop busStop="2460552082" duration="30.00"/>
        <stop busStop="2460552086" duration="30.00"/>
        <stop busStop="2460552095" duration="30.00"/>
        <stop busStop="2460552092" duration="30.00"/>
    </vehicle>

    <vehicle id="8_bus_636:1" type="pt_bus" depart="27.00" departLane="0" arrival="914.00">
        <route edges="240133507#0 240133507#1 51392762 311689672 311799869#0 311799869#1 311799869#3 311799869#4 311799869#5 311689670 686241184#0 686241184#1 312929521#0 312929521#1 299291335#1 299291335#2 299291335#3 299291335#4 265725164#0 265725164#1 265725164#2 299403731#0 506596676#1 506596676#2 506596676#3 278492469#0 278492469#1 278492469#2 278492469#3 278492469#4 515156264#0 515156264#1 515156264#2 515156264#3 515156283 515156275#0 515156275#1 515156275#2 515156275#3 515156275#4 515156275#5 515156275#6 515156275#7 515156275#8 515156284#0 515156284#1 515156284#2 515156284#3 515156284#4 515156284#5 515156284#6 515156284#7 310677986#0 310677986#1 310677986#2 189615571#1 189615571#3 407202550#2"/>
        <stop busStop="2713414697" duration="30.00"/>
        <stop busStop="2713414521" duration="30.00"/>
        <stop busStop="2702176992" duration="30.00"/>
        <stop busStop="2702178132" duration="30.00"/>
        <stop busStop="2442990951" duration="30.00"/>
        <stop busStop="2528739040" duration="30.00"/>
    </vehicle>

    <vehicle id="11_bus_221:0" type="pt_bus" depart="34.00" departLane="0" arrival="919.00">
        <route edges="407202549 311799860 493157926#0 493157926#1 51392758#0 51392758#1 51392758#2 51392758#3 51392758#4 51392758#6 51392758#7 51392758#8 51392762 311689672 311799869#0 311799869#1 311799869#3 311799869#4 311799869#5 311689670 686241184#0 686241184#1 312929521#0 312929521#1 299291335#1 299291335#2 299291335#3 299291335#4 265725164#0 265725164#1 265725164#2 299403731#0 506596676#1 506596676#2 506596676#3 278492469#0 278492469#1 278492469#2 278492469#3 278492469#4 515156264#0 515156264#1 515156264#2 515156264#3 515156283 515156275#0 515156275#1 515156275#2 515156275#3 515156275#4 515156275#5 515156275#6 515156275#7 515156275#8 515156284#0 515156284#1 515156284#2 515156284#3 515156284#4 515156284#5 515156284#6 515156284#7 310677980 310620429#0 310620429#1 310620429#2 310620429#3"/>
        <stop busStop="3188323178" duration="30.00"/>
        <stop busStop="2713414521" duration="30.00"/>
        <stop busStop="2702176992" duration="30.00"/>
        <stop busStop="2702178132" duration="30.00"/>
        <stop busStop="2702178682" duration="30.00"/>
    </vehicle>

    <vehicle id="82_bus_267:1" type="pt_bus" depart="173.00" departLane="0" arrival="922.00">
        <route edges="407206572#0 407206572#9 407206572#12 407206572#13 407206572#14 866318728#1 866318728#2 866318728#3 311860239#0 311860239#1 311860239#2 311860239#5 311860239#6 311860239#7 730830600#0 730830600#1 730830600#2 730830600#3 730830600#4 266053080 137317908#0 137317908#1 137317908#2 137317908#3 137317908#4 56723594#0 56723594#1 49795839#0 49795839#2 241536938 241536941 822577908#0 822577908#1 515730128"/>
        <stop busStop="2509668578" duration="30.00"/>
        <stop busStop="2509668587" duration="30.00"/>
        <stop busStop="2509668580" duration="30.00"/>
        <stop busStop="2509668591" duration="30.00"/>
        <stop busStop="2509668582" duration="30.00"/>
        <stop busStop="2509668572" duration="30.00"/>
        <stop busStop="2509668576" duration="30.00"/>
        <stop busStop="2459652486" duration="30.00"/>
    </vehicle>

    <vehicle id="127_subway_G:0" type="pt_subway" depart="303.00" departLane="0" arrival="924.00">
        <route edges="194585046 196868570 196868581 196868577#0"/>
        <stop busStop="3495094871@4250356" duration="30.00"/>
        <stop busStop="1493007755@4250356" duration="30.00"/>
        <stop busStop="3497302606" duration="30.00"/>
        <stop busStop="3812564397" duration="30.00"/>
        <stop busStop="3812564394" duration="30.00"/>
    </vehicle>

    <vehicle id="173_bus_綠17:1" type="pt_bus" depart="404.00" departLane="0" arrival="926.00">
        <route edges="244450426#0 244450426#1 244450426#2 -334849019#4 -334849019#3 -334849019#2 -334849019#1 334849018#0 334849018#1 189615569#0 189615569#1 189615569#2 189615569#3 189615569#4 60730648#0 60730648#1 60730648#4 60730648#5 60730648#6 60730648#7 334849015#1 334849015#2 334849015#3 334849015#4 334849015#5 60787480 382623053#0 382623053#1 382623053#2 382623053#3 384900189#0 384900189#1"/>
        <stop busStop="3419699345" duration="30.00"/>
        <stop busStop="3419699344" duration="30.00"/>
        <stop busStop="3419699341" duration="30.00"/>
    </vehicle>

    <vehicle id="22_bus_2001:0" type="pt_bus" depart="59.00" departLane="0" arrival="930.00">
        <route edges="49164248 49164289 49164271 273012559#0 273012559#1 273012559#2 273012559#3 273012559#4 273012559#5 273012559#6 450750321#1 450750321#2 450750321#3 264984494#0 264984494#1 264984494#2 264984494#3 264984494#4 264984494#5 264984494#6 264984494#7 264987125 772891704 368617667#0 368617667#1 368617667#2 368617667#3 368617667#4 368617667#5 368617667#6 368617667#7 437870658#1 437870658#4 437870658#5 437870658#6 273012211#1 273012211#2 273012211#3 273012211#4 273012211#5 273012211#6 732390620#0 732390620#1 732390620#2 51392790#1 51392790#2 299403726#1 299403726#2 199973253 289246486#0 289246486#1 289246486#2 289246486#3 289246486#4 289246486#8 5117999#1 5117999#2 5117999#3 5117999#5 5117999#6 5117999#8"/>
        <stop busStop="2631129024" duration="30.00"/>
        <stop busStop="2517658859" duration="30.00"/>
    </vehicle>

    <vehicle id="81_bus_267:0" type="pt_bus" depart="167.00" departLane="0" arrival="930.00">