<?xml version="1.0" encoding="UTF-8"?>

<!-- generated on 11/10/20 21:56:31 by Eclipse SUMO sumo Version 1.7.0
<configuration xmlns:xsi="http://www.w3.org/2001/XMLSchema-instance" xsi:noNamespaceSchemaLocation="http://sumo.dlr.de/xsd/sumoConfiguration.xsd">

    <input>
        <net-file value="D:\github\sumo-learning\2020-11-10-21-56-18\osm.net.xml"/>
        <route-files value="D:\github\sumo-learning\2020-11-10-21-56-18\trips.trips.xml"/>
        <additional-files value="D:\github\sumo-learning\2020-11-10-21-56-18\osm_stops.add.xml"/>
    </input>

    <output>
        <vehroute-output value="D:\github\sumo-learning\2020-11-10-21-56-18\vehroutes.xml"/>
        <stop-output value="D:\github\sumo-learning\2020-11-10-21-56-18\stopinfos.xml"/>
    </output>

    <time>
        <begin value="0"/>
    </time>

    <processing>
        <ignore-route-errors value="true"/>
    </processing>

    <routing>
        <device.rerouting.adaptation-interval value="0"/>
    </routing>

    <report>
        <error-log value="D:\github\sumo-learning\2020-11-10-21-56-18\trips.trips.xml.errorlog"/>
        <no-step-log value="true"/>
    </report>

</configuration>
-->

<routes xmlns:xsi="http://www.w3.org/2001/XMLSchema-instance" xsi:noNamespaceSchemaLocation="http://sumo.dlr.de/xsd/routes_file.xsd">
    <vehicle id="18_bus_292副:0" type="pt_bus" depart="66.00" departLane="0" arrival="202.00">
        <route edges="312109408#0 312109408#5 312109408#6 312109408#7 312109408#8 312109408#9 24006861 264689871 265725163#0 265725163#1"/>
        <stop busStop="3794154665" duration="30.00"/>
    </vehicle>

    <vehicle id="4_bus_636:0" type="pt_bus" depart="15.00" departLane="0" arrival="219.00">
        <route edges="368617667#0 368617667#3 437870658#1 437870658#4 437870658#5 437870658#6 273012211#1 273012211#2 273012211#3 273012211#4 273012211#5 273012211#6 265725163#0 265725163#1"/>
        <stop busStop="2517658931" duration="30.00"/>
        <stop busStop="2517658824" duration="30.00"/>
    </vehicle>

    <vehicle id="0_bus_內科圓山:0" type="pt_bus" depart="0.00" departLane="0" arrival="246.00">
        <route edges="241536929#0 241536929#1 266052139 50289964 49795832#1 49795832#2 49795876#0 49795876#1 241536967#0 241536967#1 241536967#2 -241536989#1 -241536989#0 241536984"/>
        <stop busStop="4400929026" duration="30.00"/>
    </vehicle>

    <vehicle id="5_bus_636:1" type="pt_bus" depart="15.00" departLane="0" arrival="260.00">
        <route edges="299291335#0 299291335#2 299291335#3 226831247 265725164#0 265725164#1 265725164#2 299403731#0 506596676#1 506596676#2 506596676#3 278492469#0 278492469#1 278492469#2 278492469#3 278492469#4"/>
        <stop busStop="2713414521" duration="30.00"/>
        <stop busStop="2702176992" duration="30.00"/>
    </vehicle>

    <vehicle id="17_bus_2001:0" type="pt_bus" depart="65.00" departLane="0" arrival="287.00">
        <route edges="368617667#0 368617667#3 437870658#1 437870658#4 437870658#5 437870658#6 273012211#1 273012211#2 273012211#3 273012211#4 273012211#5 273012211#6 265725161 732390620#0 732390620#1 732390620#2"/>
        <stop busStop="2517658859" duration="30.00"/>
    </vehicle>

    <vehicle id="1_bus_內科圓山:1" type="pt_bus" depart="3.00" departLane="0" arrival="300.00">
        <route edges="241536984 241536946 241536989#0 241536989#1 -303410231#0 303410231#0 241536973#1 241536973#2 515156237 515156238 515156240 515156243#0 515156243#1 49795872#1 49795872#2 50289965#0 50289965#1 266052141"/>
        <stop busStop="4400929026" duration="30.00"/>
    </vehicle>

    <vehicle id="7_bus_520:1" type="pt_bus" depart="21.00" departLane="0" arrival="303.00">
        <route edges="299291335#0 299291335#2 299291335#3 226831247 265725164#0 265725164#1 265725164#2 299403731#0 506596676#1 506596676#2 506596676#3 450750323 306543362 49788435 506596684#0 506596684#1 506596684#2 506596684#3 506596684#4 506596684#5"/>
        <stop busStop="2713414521" duration="30.00"/>
        <stop busStop="2703510764" duration="30.00"/>
    </vehicle>

    <vehicle id="26_bus_638:0" type="pt_bus" depart="126.00" departLane="0" arrival="321.00">
        <route edges="308987019#0 308987019#2 308987019#5 308987019#7 308987019#8 308987019#9 308987019#10 308987019#11 506597801#1 506597801#3 506597801#4 506597801#5 265735748 50893546 278492471 278492470#0 278492470#1 278492470#2 506596678#1 506596678#2 299403732#0 299403732#1 264689871 265725163#0 265725163#1"/>
        <stop busStop="2509549136" duration="30.00"/>
    </vehicle>

    <vehicle id="64_subway_BR:0" type="pt_subway" depart="305.00" departLane="0" arrival="336.00">
        <route edges="195696237"/>
        <stop busStop="3497302607" duration="30.00"/>
    </vehicle>

    <vehicle id="35_bus_2:0" type="pt_bus" depart="157.00" departLane="0" arrival="344.00">
        <route edges="368617667#0 368617667#3 299804824#1 299804824#2 299804824#3 299804824#4 299804824#5 299804822#1 299804822#2 299804822#3 -264309964#1 -264309964#0"/>
        <stop busStop="3881368454" duration="30.00"/>
        <stop busStop="-3188479009" duration="30.00"/>
    </vehicle>

    <vehicle id="33_bus_606:0" type="pt_bus" depart="139.00" departLane="0" arrival="358.00">
        <route edges="50893489 318382834 254326534 -49074697 793191066#0 254326526#0 254326526#1 254326526#2 254326526#3 254326526#4 254326526#5 254326526#6"/>
        <stop busStop="2460552126" duration="30.00"/>
        <stop busStop="2460552127" duration="30.00"/>
    </vehicle>

    <vehicle id="6_bus_520:0" type="pt_bus" depart="17.00" departLane="0" arrival="400.00">
        <route edges="308987019#0 308987019#2 308987019#5 308987019#7 308987019#8 308987019#9 308987019#10 308987019#11 506597801#1 506597801#3 506597801#4 506597801#5 265735748 50893546 278492471 278492470#0 278492470#1 278492470#2 506596678#1 506596678#2 299403732#0 299403732#1 264689871 265725163#0 265725163#1"/>
        <stop busStop="2509549136" duration="30.00"/>
        <stop busStop="2703510765" duration="30.00"/>
        <stop busStop="4838086676" duration="30.00"/>
    </vehicle>

    <vehicle id="80_bus_676:1" type="pt_bus" depart="371.00" departLane="0" arrival="426.00">
        <route edges="263056100#1 263056100#2 263056100#3"/>
        <stop busStop="2506289799" duration="30.00"/>
    </vehicle>

    <vehicle id="22_bus_21:0" type="pt_bus" depart="102.00" departLane="0" arrival="428.00">
        <route edges="241536929#0 241536929#1 266052139 50289964 49795832#1 49795832#2 49795876#0 49795876#1 241536967#0 241536967#1 241536967#2 -241536989#1 -241536989#0 241536984"/>
        <stop busStop="2509549129" duration="30.00"/>
        <stop busStop="2509668574" duration="30.00"/>
        <stop busStop="4400929026" duration="30.00"/>
    </vehicle>

    <vehicle id="24_bus_966:0" type="pt_bus" depart="119.00" departLane="0" arrival="436.00">
        <route edges="264309964#0 264309964#1 299804823#0 299804823#1 299804823#2 291356417#2 291356417#3 291356417#4 291356417#5 291356417#6 437870658#1 437870658#4 437870658#5 437870658#6 273012211#1 273012211#2 273012211#3 273012211#4 273012211#5 273012211#6 265725161 732390620#0 732390620#1 732390620#2"/>
        <stop busStop="2517658841" duration="30.00"/>
        <stop busStop="2517658824" duration="30.00"/>
        <stop busStop="2517658859" duration="30.00"/>
    </vehicle>

    <vehicle id="72_subway_BR:1" type="pt_subway" depart="334.00" departLane="0" arrival="440.00">
        <route edges="195696213 502829430 195696242#1 195696242#2 195696242#3 502829428 50212695#3 195696237"/>
        <stop busStop="3497302607" duration="30.00"/>
    </vehicle>

    <vehicle id="51_bus_5201:0" type="pt_bus" depart="222.00" departLane="0" arrival="453.00">
        <route edges="49164288 49074706 49074696 302246990#0 302246990#1 407513567#1 260789415#0 260789415#3 260789415#4 260789415#5 260789415#6 260789415#7 260789415#8 260789415#9 263056100#1 263056100#2 263056100#3"/>
        <stop busStop="3064960375" duration="30.00"/>
    </vehicle>

    <vehicle id="55_bus_9025:0" type="pt_bus" depart="237.00" departLane="0" arrival="456.00">
        <route edges="49164288 49074706 49074696 302246990#0 302246990#1 407513567#1 260789415#0 260789415#3 260789415#4 260789415#5 260789415#6 260789415#7 260789415#8 260789415#9 263056100#1 263056100#2 263056100#3"/>
        <stop busStop="2506289848" duration="30.00"/>
    </vehicle>

    <vehicle id="84_bus_5:1" type="pt_bus" depart="383.00" departLane="0" arrival="466.00">
        <route edges="401376480#0 401376480#2 401376480#3 401376480#4"/>
        <stop busStop="1166189365" duration="30.00"/>
    </vehicle>

    <vehicle id="8_bus_221:0" type="pt_bus" depart="27.00" departLane="0" arrival="467.00">
        <route edges="299291335#0 299291335#2 299291335#3 226831247 265725164#0 265725164#1 265725164#2 299403731#0 506596676#1 506596676#2 506596676#3 278492469#0 278492469#1 278492469#2 278492469#3 278492469#4"/>
        <stop busStop="2713414521" duration="30.00"/>
        <stop busStop="2702176992" duration="30.00"/>
    </vehicle>

    <vehicle id="37_bus_260:1" type="pt_bus" depart="158.00" departLane="0" arrival="467.00">
        <route edges="241536929#0 241536929#1 266052139 50289964 49795832#1 49795832#2 49795876#0 49795876#1 241536920 515156236#0 515156236#1 515156236#2 515156250#0 515156250#1 515156250#2 515156250#3 515156259#0 515156259#1 319208672#0 319208672#1 450750325 278492469#0 278492469#1 278492469#2 278492469#3 278492469#4"/>
        <stop busStop="2509549129" duration="30.00"/>
    </vehicle>

    <vehicle id="23_bus_21:1" type="pt_bus" depart="107.00" departLane="0" arrival="470.00">
        <route edges="241536984 241536946 241536989#0 241536989#1 -303410231#0 303410231#0 241536973#1 241536973#2 515156237 515156238 515156240 515156243#0 515156243#1 49795872#1 49795872#2 50289965#0 50289965#1 266052141"/>
        <stop busStop="4400929026" duration="30.00"/>
        <stop busStop="2509549130" duration="30.00"/>
    </vehicle>

    <vehicle id="19_bus_292副:1" type="pt_bus" depart="91.00" departLane="0" arrival="472.00">
        <route edges="299291335#0 299291335#2 299291335#3 732390620#0 732390620#1 732390620#2"/>
        <stop busStop="2517658859" duration="30.00"/>
    </vehicle>

    <vehicle id="74_bus_9023:1" type="pt_bus" depart="346.00" departLane="0" arrival="478.00">
        <route edges="50893520#6 50893520#8 50893520#9 299804823#0 299804823#1 299804823#2"/>
        <stop busStop="2517658893" duration="30.00"/>
        <stop busStop="2517658841" duration="30.00"/>
    </vehicle>

    <vehicle id="56_bus_9025:1" type="pt_bus" depart="243.00" departLane="0" arrival="494.00">
        <route edges="49164288 49074706 49074696 302246990#0 302246990#1 407513567#1 260789415#0 260789415#3 260789415#4 260789415#5 260789415#6 260789415#7 260789415#8 260789415#9 263056100#1 263056100#2 263056100#3"/>
        <stop busStop="2506289848" duration="30.00"/>
    </vehicle>

    <vehicle id="68_bus_298:1" type="pt_bus" depart="322.00" departLane="0" arrival="542.00">
        <route edges="668037871#0 668037871#2 668037871#3 668037871#4 238707587#1 238707587#2 238707587#3 238707587#4 238707587#5 238707587#6 310620430#1 310620430#2 310620430#3 310620430#4"/>
        <stop busStop="3419306362" duration="30.00"/>
        <stop busStop="3419306361" duration="30.00"/>
    </vehicle>

    <vehicle id="57_bus_306:0" type="pt_bus" depart="253.00" departLane="0" arrival="544.00">
        <route edges="368617667#0 368617667#3 437870658#1 437870658#4 437870658#5 437870658#6 273012211#1 273012211#2 273012211#3 273012211#4 273012211#5 273012211#6 265725163#0 265725163#1"/>
        <stop busStop="2517658931" duration="30.00"/>
        <stop busStop="2517658824" duration="30.00"/>
        <stop busStop="2517658856" duration="30.00"/>
    </vehicle>

    <vehicle id="29_bus_292:0" type="pt_bus" depart="137.00" departLane="0" arrival="558.00">
        <route edges="299291335#0 299291335#2 299291335#3 732390620#0 732390620#1 732390620#2"/>
        <stop busStop="2517658859" duration="30.00"/>
    </vehicle>

    <vehicle id="58_bus_306:1" type="pt_bus" depart="259.00" departLane="0" arrival="577.00">
        <route edges="368617667#0 368617667#3 437870658#1 437870658#4 437870658#5 437870658#6 273012211#1 273012211#2 273012211#3 273012211#4 273012211#5 273012211#6 265725163#0 265725163#1"/>
        <stop busStop="2517658931" duration="30.00"/>
        <stop busStop="2517658824" duration="30.00"/>
        <stop busStop="2517658856" duration="30.00"/>
    </vehicle>

    <vehicle id="113_bus_226:0" type="pt_bus" depart="525.00" departLane="0" arrival="577.00">
        <route edges="732390620#1"/>
        <stop busStop="2517658859" duration="30.00"/>
    </vehicle>

    <vehicle id="3_bus_NH18:1" type="pt_bus" depart="11.00" departLane="0" arrival="584.00">
        <route edges="226831247 265725164#0 265725164#1 265725164#2 299403731#0 506596676#1 506596676#2 506596676#3 450750323 306543362 49788435 506596684#0 506596684#1 506596684#2 506596684#3 506596684#4 506596684#5 506596684#6 506597799#0 506597799#1 506597799#2 265735591 263056109 506597804#0 506597804#1 506597804#2 506597805#0 506597805#1 506597805#2 241545656#0 241545656#1 241545656#2 241545656#3 241545656#4 241545656#5 263056104#0 263056104#1 263056104#2 506597809#0 506597809#1 506597809#2 506597811 506597812#0 506597812#1 506597812#2 506597812#3 506599419#0 506599419#1 506599419#2 506599419#4 772891699#0 772891699#1 506316028#0 506316028#1 506316028#2 506599423#0 506599423#1 506599423#2 506599423#3 506599423#4 506599423#5 264410144"/>
        <stop busStop="2517658859@10124604" duration="30.00"/>
    </vehicle>

    <vehicle id="65_bus_紅57:0" type="pt_bus" depart="317.00" departLane="0" arrival="595.00">
        <route edges="260789406#0 260789406#1 260789406#2 260789406#3 260789406#4 260789406#5 260789406#8 260789406#9 260789406#11 260789406#12 260789406#13 260789406#15 260789406#16 260789406#17 260789406#18 260789406#19 260789406#20 241545656#0 241545656#1 241545656#2 241545656#3 241545656#4 241545656#5 263056100#1 263056100#2 263056100#3"/>
        <stop busStop="2657578306" duration="30.00"/>
        <stop busStop="2657578312" duration="30.00"/>
        <stop busStop="2657578309" duration="30.00"/>
        <stop busStop="2506289799" duration="30.00"/>
    </vehicle>

    <vehicle id="14_bus_967直:1" type="pt_bus" depart="55.00" departLane="0" arrival="601.00">
        <route edges="49164288 49074706 49074696 302246990#0 302246990#1 407513567#1 260789415#0 260789415#3 260789415#4 260789415#5 260789415#6 260789415#7 260789415#8 260789415#9 263056104#0 263056104#1 263056104#2 506597809#0 506597809#1 506597809#2 506597811 506597812#0 506597812#1 506597812#2 506597812#3 506599419#0 506599419#1 506599419#2 506599419#4 772891699#0 772891699#1 506316028#0 506316028#1 506316028#2 506599423#0 506599423#1 506599423#2 506599423#3 506599423#4 506599423#5 264410144 241545650#1 241545650#2"/>
        <stop busStop="4961039545" duration="30.00"/>
        <stop busStop="2506289802" duration="30.00"/>
        <stop busStop="2506289804" duration="30.00"/>
        <stop busStop="2657578314" duration="30.00"/>
        <stop busStop="2657578316" duration="30.00"/>
    </vehicle>

    <vehicle id="95_bus_643:1" type="pt_bus" depart="432.00" departLane="0" arrival="627.00">
        <route edges="198589897#3 198589897#4 198589897#5 772891698 264859962#0 264859962#1 264859962#2 264859962#3 264859962#4"/>
        <stop busStop="2506289797" duration="30.00"/>
        <stop busStop="2506754602" duration="30.00"/>
    </vehicle>

    <vehicle id="129_bus_246:0" type="pt_bus" depart="598.00" departLane="0" arrival="641.00">
        <route edges="-308286090#11"/>
        <stop busStop="-2509549126" duration="30.00"/>
    </vehicle>

    <vehicle id="112_bus_292:1" type="pt_bus" depart="522.00" departLane="0" arrival="644.00">
        <route edges="312109408#0 312109408#5 312109408#6 312109408#7 312109408#8 312109408#9 24006861 264689871 265725163#0 265725163#1"/>
        <stop busStop="3794154665" duration="30.00"/>
    </vehicle>

    <vehicle id="73_bus_9023:0" type="pt_bus" depart="336.00" departLane="0" arrival="655.00">
        <route edges="306977115#0 306977115#1 306977115#2 50893520#2 50893520#3 50893520#6 50893520#8 50893520#9 300090400#1 300090400#2 300090400#4 300090400#7 300090400#8 382754769"/>
        <stop busStop="2517658844" duration="30.00"/>
    </vehicle>

    <vehicle id="47_bus_616:0" type="pt_bus" depart="194.00" departLane="0" arrival="662.00">
        <route edges="50893520#0 50893520#2 50893520#3 50893520#6 50893520#8 50893520#9 299804823#0 299804823#1 299804823#2 291356417#2 291356417#3 291356417#4 291356417#5 291356417#6 437870658#1 437870658#4 437870658#5 437870658#6 273012211#1 273012211#2 273012211#3 273012211#4 273012211#5 273012211#6 265725163#0 265725163#1"/>
        <stop busStop="2517658893" duration="30.00"/>
        <stop busStop="2517658841" duration="30.00"/>
        <stop busStop="2517658931" duration="30.00"/>
        <stop busStop="2517658824" duration="30.00"/>
    </vehicle>

    <vehicle id="34_subway_R:0" type="pt_subway" depart="147.00" departLane="0" arrival="663.00">
        <route edges="265151055 865641460 194618356 194618291 194618339"/>
        <stop busStop="3495094874" duration="30.00"/>
        <stop busStop="3495094873" duration="30.00"/>
    </vehicle>

    <vehicle id="105_bus_9:0" type="pt_bus" depart="485.00" departLane="0" arrival="669.00">
        <route edges="368617667#0 368617667#3 299804824#1 299804824#2 299804824#3 299804824#4 299804824#5 299804822#1 299804822#2 299804822#3 -264309964#1 -264309964#0"/>
        <stop busStop="3881368454" duration="30.00"/>
        <stop busStop="-3188479009" duration="30.00"/>
    </vehicle>

    <vehicle id="106_bus_1501:0" type="pt_bus" depart="497.00" departLane="0" arrival="669.00">
        <route edges="-780467355#3 -780467355#0 273012211#1 273012211#2 273012211#3 273012211#4 273012211#5 273012211#6 265725163#0 265725163#1"/>
        <stop busStop="2517658824" duration="30.00"/>
    </vehicle>

    <vehicle id="42_bus_中山幹線:1" type="pt_bus" depart="166.00" departLane="0" arrival="680.00">
        <route edges="515156277#0 515156266#0 515156266#1 515156266#2 515156266#3 515156266#4 506596685 265735749#0 265735749#1 265735749#2 319208670#0 319208670#1 515156255#0 515156255#1 515156255#2 515156251#0 515156251#1 515156251#2 515156251#3 515156251#4 241811753 265735269#0 265735269#1 265735269#2 49795872#1 49795872#2 50289965#0 50289965#1 266052141"/>
        <stop busStop="2702176993" duration="30.00"/>
        <stop busStop="2702175895" duration="30.00"/>
        <stop busStop="2702173288" duration="30.00"/>
        <stop busStop="2509549130" duration="30.00"/>
    </vehicle>

    <vehicle id="67_bus_298:0" type="pt_bus" depart="321.00" departLane="0" arrival="687.00">
        <route edges="316964704#0 -593840519#7 -593840519#6 -593840519#5 -593840519#4 -593840519#3 -593840519#2 -593840519#1 593840518#1 593840518#2 593840518#3 238707595#1 238707595#2 238707595#3 238707595#4 238707595#5 238707595#6 238707595#9 312879610#0 312879610#1"/>
        <stop busStop="1483501762" duration="30.00"/>
        <stop busStop="2506289800" duration="30.00"/>
    </vehicle>

    <vehicle id="66_bus_紅57:1" type="pt_bus" depart="318.00" departLane="0" arrival="698.00">
        <route edges="265736010#0 593840518#1 593840518#2 593840518#3 198589909#0 198589909#1 198589909#2 198589909#3 198589909#4 198589909#5 -260789406#20 -260789406#19 -260789406#18 -260789406#17 -260789406#16 -260789406#15 -260789406#13 -260789406#12 -260789406#11 -260789406#9 -260789406#8 -260789406#5 -260789406#4 -260789406#3 -260789406#2 -260789406#1 -260789406#0"/>
        <stop busStop="2685395657" duration="30.00"/>
        <stop busStop="-2657578308" duration="30.00"/>
        <stop busStop="-2657578311" duration="30.00"/>
        <stop busStop="-2657578307" duration="30.00"/>
    </vehicle>

    <vehicle id="25_bus_260:0" type="pt_bus" depart="125.00" departLane="0" arrival="709.00">
        <route edges="515156277#0 515156266#0 515156266#1 515156266#2 515156266#3 515156266#4 506596685 265735749#0 265735749#1 265735749#2 319208670#0 319208670#1 515156255#0 515156255#1 515156255#2 515156251#0 515156251#1 515156251#2 515156251#3 515156251#4 241811753 265735269#0 265735269#1 265735269#2 49795872#1 49795872#2 50289965#0 50289965#1 266052141"/>
        <stop busStop="2702173288" duration="30.00"/>
        <stop busStop="2509549130" duration="30.00"/>
    </vehicle>

    <vehicle id="28_bus_復興幹線:0" type="pt_bus" depart="131.00" departLane="0" arrival="711.00">
        <route edges="-793234595 -404387335 238707590#0 238707590#1 238707596#0 238707596#1 238707596#2 238707596#4 238707596#5 238707596#6 238707596#7 238707596#10 238707596#11 238707596#14 238707596#15 238707596#16 238707596#17 238707596#18 198589897#0 198589897#1 198589897#2 198589897#3 198589897#4 198589897#5 772891698 264859962#0 264859962#1 264859962#2 264859962#3 264859962#4"/>
        <stop busStop="-4066659498" duration="30.00"/>
        <stop busStop="2506289838" duration="30.00"/>
        <stop busStop="2506289805" duration="30.00"/>
        <stop busStop="2506289795" duration="30.00"/>
        <stop busStop="2506289798" duration="30.00"/>
        <stop busStop="2506289797" duration="30.00"/>
        <stop busStop="2506754602" duration="30.00"/>
    </vehicle>

    <vehicle id="16_bus_967:1" type="pt_bus" depart="61.00" departLane="0" arrival="720.00">
        <route edges="49164288 49074706 49074696 302246990#0 302246990#1 407513567#1 260789415#0 260789415#3 260789415#4 260789415#5 260789415#6 260789415#7 260789415#8 260789415#9 263056104#0 263056104#1 263056104#2 506597809#0 506597809#1 506597809#2 506597811 506597812#0 506597812#1 506597812#2 506597812#3 506599419#0 506599419#1 506599419#2 506599419#4 772891699#0 772891699#1 506316028#0 506316028#1 506316028#2 506599423#0 506599423#1 506599423#2 506599423#3 506599423#4 506599423#5 264410144 241545650#1 241545650#2"/>
        <stop busStop="4961039545" duration="30.00"/>
        <stop busStop="2506289802" duration="30.00"/>
        <stop busStop="2506289804" duration="30.00"/>
        <stop busStop="2657578314" duration="30.00"/>
        <stop busStop="2657578316" duration="30.00"/>
    </vehicle>

    <vehicle id="60_subway_O:0" type="pt_subway" depart="272.00" departLane="0" arrival="723.00">
        <route edges="198281393 194618356"/>
        <stop busStop="3812564391" duration="30.00"/>
        <stop busStop="3495094873" duration="30.00"/>
    </vehicle>

    <vehicle id="38_bus_109:0" type="pt_bus" depart="160.00" departLane="0" arrival="755.00">
        <route edges="50893489 318382834 254326534 -49074697 793191066#0 254326526#0 254326526#1 254326526#2 254326526#3 254326526#4 254326526#5 254326526#6 254326526#7 254326526#8 313235566#0 313235566#1 313235566#2 313235566#3 313235566#4 506597799#0 506597799#1 506597799#2 265735591 263056109 506597804#0 506597804#1 506597804#2 506597805#0 506597805#1 506597805#2 241545656#0 241545656#1 241545656#2 241545656#3 241545656#4 241545656#5 263056100#1 263056100#2 263056100#3"/>
        <stop busStop="2460552126" duration="30.00"/>
        <stop busStop="2460552127" duration="30.00"/>
        <stop busStop="2460552082" duration="30.00"/>
        <stop busStop="2686831915" duration="30.00"/>
        <stop busStop="2506289799" duration="30.00"/>
    </vehicle>

    <vehicle id="83_bus_5:0" type="pt_bus" depart="383.00" departLane="0" arrival="774.00">
        <route edges="198589912#0 198589912#1 198589912#2 198589912#3 198589912#5 198589912#6 198589912#7 506599421#0 506599421#1 506599421#2 506599421#3 317347668 334816784#0 334816784#1 334816784#2 334816784#3 334816784#4 334816784#5 506597810#0 506597810#1 506597810#2 506597810#3 263056100#1 263056100#2 263056100#3"/>
        <stop busStop="2506289804@5311165" duration="30.00"/>
        <stop busStop="1483501761" duration="30.00"/>
        <stop busStop="2506289803" duration="30.00"/>
    </vehicle>

    <vehicle id="41_bus_中山幹線:0" type="pt_bus" depart="165.00" departLane="0" arrival="777.00">
        <route edges="241536929#0 241536929#1 266052139 50289964 49795832#1 49795832#2 49795876#0 49795876#1 241536920 515156236#0 515156236#1 515156236#2 515156250#0 515156250#1 515156250#2 515156250#3 515156259#0 515156259#1 319208672#0 319208672#1 450750325 278492469#0 278492469#1 278492469#2 278492469#3 278492469#4"/>
        <stop busStop="2509549129" duration="30.00"/>
        <stop busStop="2702173283" duration="30.00"/>
        <stop busStop="2702175363" duration="30.00"/>
        <stop busStop="2702176992" duration="30.00"/>
    </vehicle>

    <vehicle id="104_bus_214:1" type="pt_bus" depart="484.00" departLane="0" arrival="795.00">
        <route edges="506597809#1 506597809#2 506597811 506597812#0 506597812#1 506597812#2 506597812#3 506599419#0 506599419#1 506599419#2 506599419#4 772891699#0 772891699#1 506316028#0 506316028#1 506316028#2 506599423#0 506599423#1"/>
        <stop busStop="2506289802" duration="30.00"/>
        <stop busStop="2506289804" duration="30.00"/>
        <stop busStop="2657578314" duration="30.00"/>
        <stop busStop="2657578316" duration="30.00"/>
    </vehicle>

    <vehicle id="77_bus_承德幹線:0" type="pt_bus" depart="362.00" departLane="0" arrival="798.00">
        <route edges="50893520#0 50893520#2 50893520#3 50893520#6 50893520#8 50893520#9 299804823#0 299804823#1 299804823#2 291356417#2 291356417#3 291356417#4 291356417#5 291356417#6 437870658#1 437870658#4 437870658#5 437870658#6 273012211#1 273012211#2 273012211#3 273012211#4 273012211#5 273012211#6 265725161 732390620#0 732390620#1 732390620#2"/>
        <stop busStop="2517658893" duration="30.00"/>
        <stop busStop="2517658841" duration="30.00"/>
        <stop busStop="2517658931" duration="30.00"/>
        <stop busStop="2517658824" duration="30.00"/>
        <stop busStop="2517658856" duration="30.00"/>
        <stop busStop="2517658859" duration="30.00"/>
    </vehicle>

    <vehicle id="98_bus_33:0" type="pt_bus" depart="441.00" departLane="0" arrival="829.00">
        <route edges="260789418#0 260789418#2 260789418#3 260789418#4 260789418#5 260789418#6 260789418#7 506599425#0 506599425#1 506599424#1 506599424#2 506599424#3 506599424#4 506599424#5 238707591#1 238707591#2 304591777#0 304591777#1 304591777#2 304591777#3 304591777#4 95015336 95015334 29174276#0 29174276#1 338923674 779271000 765770904#0 765770904#1 45265806"/>
        <stop busStop="2657578315" duration="30.00"/>
        <stop busStop="2657578313" duration="30.00"/>
    </vehicle>

    <vehicle id="20_bus_685吉林:0" type="pt_bus" depart="93.00" departLane="0" arrival="851.00">
        <route edges="50893489 318382834 254326534 -49074697 793191066#0 50202893#0 50202893#1 50202893#2 50202893#3 260789406#0 260789406#1 260789406#2 260789406#3 260789406#4 260789406#5 260789406#8 260789406#9 260789406#11 260789406#12 260789406#13 260789406#15 260789406#16 260789406#17 260789406#18 260789406#19 260789406#20 241545656#0 241545656#1 241545656#2 241545656#3 241545656#4 241545656#5 263056104#0 263056104#1 263056104#2 506597809#0 506597809#1 506597809#2 506597811 506597812#0 506597812#1 506597812#2 506597812#3 506599419#0 506599419#1 506599419#2 506599419#4 772891699#0 772891699#1 772891698 264859962#0 264859962#1 264859962#2 264859962#3 264859962#4"/>
        <stop busStop="4082319379" duration="30.00"/>
        <stop busStop="2657578306" duration="30.00"/>
        <stop busStop="2657578312" duration="30.00"/>
        <stop busStop="2657578309" duration="30.00"/>
        <stop busStop="2183271156" duration="30.00"/>
        <stop busStop="2506289802" duration="30.00"/>
        <stop busStop="2506289804" duration="30.00"/>
        <stop busStop="2506754602" duration="30.00"/>
    </vehicle>

    <vehicle id="97_bus_756:1" type="pt_bus" depart="440.00" departLane="0" arrival="857.00">
        <route edges="50893520#6 50893520#8 50893520#9 299804823#0 299804823#1 299804823#2 291356417#2 291356417#3 291356417#4 291356417#5 291356417#6 437870658#1 437870658#4 437870658#5 437870658#6 273012211#1 273012211#2 273012211#3 273012211#4 273012211#5 273012211#6 265725161 732390620#0 732390620#1"/>
        <stop busStop="2517658893" duration="30.00"/>
        <stop busStop="2517658841" duration="30.00"/>
        <stop busStop="2517658931" duration="30.00"/>
        <stop busStop="2517658824" duration="30.00"/>
        <stop busStop="2517658859" duration="30.00"/>
    </vehicle>

    <vehicle id="27_bus_638:1" type="pt_bus" depart="131.00" departLane="0" arrival="865.00">
        <route edges="299291335#0 299291335#2 299291335#3 226831247 265725164#0 265725164#1 265725164#2 299403731#0 506596676#1 506596676#2 506596676#3 450750323 306543362 49788435 506596684#0 506596684#1 506596684#2 506596684#3 506596684#4 506596684#5 506596684#6 -308987019#11 -308987019#10 -308987019#9 -308987019#8 -308987019#7 -308987019#5 -308987019#2 -308987019#1"/>
        <stop busStop="2713414521" duration="30.00"/>
        <stop busStop="2703510764" duration="30.00"/>
        <stop busStop="-2491474584" duration="30.00"/>
    </vehicle>

    <vehicle id="115_bus_觀光巴士藍線:0" type="pt_bus" depart="527.00" departLane="0" arrival="880.00">
        <route edges="241536929#0 241536929#1 266052139 50289964 49795832#1 49795832#2 49795876#0 49795876#1 241536920 515156236#0 515156236#1 515156236#2 515156250#0 515156250#1 515156250#2 515156250#3 515156259#0 515156259#1 319208672#0 319208672#1 450750325 278492469#0 278492469#1 278492469#2 278492469#3 278492469#4"/>
        <stop busStop="2509549129" duration="30.00"/>
        <stop busStop="2702175363" duration="30.00"/>
    </vehicle>

    <vehicle id="76_bus_1717:1" type="pt_bus" depart="353.00" departLane="0" arrival="881.00">